+ 1 8 4 tcp 40 ------- 0 8.1 -2147483648.0 0 0
- 1 8 4 tcp 40 ------- 0 8.1 -2147483648.0 0 0
+ 1 8 5 tcp 40 ------- 0 8.1 -2147483648.0 0 0
- 1 8 5 tcp 40 ------- 0 8.1 -2147483648.0 0 0
v 1 eval {set sim_annotation {1 0 join-group -2147483648}}
v 1 eval {set sim_annotation {1 4 join-group -2147483648}}
v 1 eval {set sim_annotation {1 8 join-group -2147483648}}
v 1 eval {set sim_annotation {1 1 join-group -2147483648}}
v 1 eval {set sim_annotation {1 5 join-group -2147483648}}
v 1 eval {set sim_annotation {1 9 join-group -2147483648}}
v 1 eval {set sim_annotation {1 2 join-group -2147483648}}
v 1 eval {set sim_annotation {1 6 join-group -2147483648}}
v 1 eval {set sim_annotation {1 10 join-group -2147483648}}
v 1 eval {set sim_annotation {1 3 join-group -2147483648}}
v 1 eval {set sim_annotation {1 7 join-group -2147483648}}
v 1 eval {set sim_annotation {1 11 join-group -2147483648}}
r 1.01 8 4 tcp 40 ------- 0 8.1 -2147483648.0 0 0
+ 1.01 4 0 tcp 40 ------- 0 8.1 -2147483648.0 0 0
- 1.01 4 0 tcp 40 ------- 0 8.1 -2147483648.0 0 0
+ 1.01 4 1 tcp 40 ------- 0 8.1 -2147483648.0 0 0
- 1.01 4 1 tcp 40 ------- 0 8.1 -2147483648.0 0 0
+ 1.01 4 9 tcp 40 ------- 0 8.1 -2147483648.0 0 0
- 1.01 4 9 tcp 40 ------- 0 8.1 -2147483648.0 0 0
r 1.01 8 5 tcp 40 ------- 0 8.1 -2147483648.0 0 0
+ 1.01 5 2 tcp 40 ------- 0 8.1 -2147483648.0 0 0
- 1.01 5 2 tcp 40 ------- 0 8.1 -2147483648.0 0 0
+ 1.01 5 3 tcp 40 ------- 0 8.1 -2147483648.0 0 0
- 1.01 5 3 tcp 40 ------- 0 8.1 -2147483648.0 0 0
r 1.020001 4 0 tcp 40 ------- 0 8.1 -2147483648.0 0 0
+ 1.020001 0 6 tcp 40 ------- 0 8.1 -2147483648.0 0 0
- 1.020001 0 6 tcp 40 ------- 0 8.1 -2147483648.0 0 0
r 1.020001 4 1 tcp 40 ------- 0 8.1 -2147483648.0 0 0
r 1.020001 4 9 tcp 40 ------- 0 8.1 -2147483648.0 0 0
r 1.020001 5 2 tcp 40 ------- 0 8.1 -2147483648.0 0 0
+ 1.020001 2 7 tcp 40 ------- 0 8.1 -2147483648.0 0 0
- 1.020001 2 7 tcp 40 ------- 0 8.1 -2147483648.0 0 0
r 1.020001 5 3 tcp 40 ------- 0 8.1 -2147483648.0 0 0
r 1.030001 0 6 tcp 40 ------- 0 8.1 -2147483648.0 0 0
+ 1.030001 6 10 tcp 40 ------- 0 8.1 -2147483648.0 0 0
- 1.030001 6 10 tcp 40 ------- 0 8.1 -2147483648.0 0 0
+ 1.030001 6 11 tcp 40 ------- 0 8.1 -2147483648.0 0 0
- 1.030001 6 11 tcp 40 ------- 0 8.1 -2147483648.0 0 0
r 1.030001 2 7 tcp 40 ------- 0 8.1 -2147483648.0 0 0
r 1.040001 6 10 tcp 40 ------- 0 8.1 -2147483648.0 0 0
r 1.040001 6 11 tcp 40 ------- 0 8.1 -2147483648.0 0 0
+ 4 8 4 tcp 40 ------- 0 8.1 -2147483648.0 0 1
- 4 8 4 tcp 40 ------- 0 8.1 -2147483648.0 0 1
+ 4 8 5 tcp 40 ------- 0 8.1 -2147483648.0 0 1
- 4 8 5 tcp 40 ------- 0 8.1 -2147483648.0 0 1
r 4.01 8 4 tcp 40 ------- 0 8.1 -2147483648.0 0 1
+ 4.01 4 0 tcp 40 ------- 0 8.1 -2147483648.0 0 1
- 4.01 4 0 tcp 40 ------- 0 8.1 -2147483648.0 0 1
+ 4.01 4 1 tcp 40 ------- 0 8.1 -2147483648.0 0 1
- 4.01 4 1 tcp 40 ------- 0 8.1 -2147483648.0 0 1
+ 4.01 4 9 tcp 40 ------- 0 8.1 -2147483648.0 0 1
- 4.01 4 9 tcp 40 ------- 0 8.1 -2147483648.0 0 1
r 4.01 8 5 tcp 40 ------- 0 8.1 -2147483648.0 0 1
+ 4.01 5 2 tcp 40 ------- 0 8.1 -2147483648.0 0 1
- 4.01 5 2 tcp 40 ------- 0 8.1 -2147483648.0 0 1
+ 4.01 5 3 tcp 40 ------- 0 8.1 -2147483648.0 0 1
- 4.01 5 3 tcp 40 ------- 0 8.1 -2147483648.0 0 1
r 4.020001 4 0 tcp 40 ------- 0 8.1 -2147483648.0 0 1
+ 4.020001 0 6 tcp 40 ------- 0 8.1 -2147483648.0 0 1
- 4.020001 0 6 tcp 40 ------- 0 8.1 -2147483648.0 0 1
r 4.020001 4 1 tcp 40 ------- 0 8.1 -2147483648.0 0 1
r 4.020001 4 9 tcp 40 ------- 0 8.1 -2147483648.0 0 1
r 4.020001 5 2 tcp 40 ------- 0 8.1 -2147483648.0 0 1
+ 4.020001 2 7 tcp 40 ------- 0 8.1 -2147483648.0 0 1
- 4.020001 2 7 tcp 40 ------- 0 8.1 -2147483648.0 0 1
r 4.020001 5 3 tcp 40 ------- 0 8.1 -2147483648.0 0 1
r 4.030001 0 6 tcp 40 ------- 0 8.1 -2147483648.0 0 1
+ 4.030001 6 10 tcp 40 ------- 0 8.1 -2147483648.0 0 1
- 4.030001 6 10 tcp 40 ------- 0 8.1 -2147483648.0 0 1
+ 4.030001 6 11 tcp 40 ------- 0 8.1 -2147483648.0 0 1
- 4.030001 6 11 tcp 40 ------- 0 8.1 -2147483648.0 0 1
r 4.030001 2 7 tcp 40 ------- 0 8.1 -2147483648.0 0 1
r 4.040001 6 10 tcp 40 ------- 0 8.1 -2147483648.0 0 1
r 4.040001 6 11 tcp 40 ------- 0 8.1 -2147483648.0 0 1
