+ 1 21 10 cbr 1000 ------- 0 21.1 -2147483648.-1 0 0
- 1 21 10 cbr 1000 ------- 0 21.1 -2147483648.-1 0 0
+ 1 21 14 cbr 1000 ------- 0 21.1 -2147483648.-1 0 0
- 1 21 14 cbr 1000 ------- 0 21.1 -2147483648.-1 0 0
r 1.018 21 10 cbr 1000 ------- 0 21.1 -2147483648.-1 0 0
+ 1.018 10 0 cbr 1000 ------- 0 21.1 -2147483648.-1 0 0
- 1.018 10 0 cbr 1000 ------- 0 21.1 -2147483648.-1 0 0
+ 1.018 10 1 cbr 1000 ------- 0 21.1 -2147483648.-1 0 0
- 1.018 10 1 cbr 1000 ------- 0 21.1 -2147483648.-1 0 0
+ 1.018 10 20 cbr 1000 ------- 0 21.1 -2147483648.-1 0 0
- 1.018 10 20 cbr 1000 ------- 0 21.1 -2147483648.-1 0 0
r 1.018 21 14 cbr 1000 ------- 0 21.1 -2147483648.-1 0 0
+ 1.018 14 2 cbr 1000 ------- 0 21.1 -2147483648.-1 0 0
- 1.018 14 2 cbr 1000 ------- 0 21.1 -2147483648.-1 0 0
+ 1.018 14 3 cbr 1000 ------- 0 21.1 -2147483648.-1 0 0
- 1.018 14 3 cbr 1000 ------- 0 21.1 -2147483648.-1 0 0
+ 1.018 14 20 cbr 1000 ------- 0 21.1 -2147483648.-1 0 0
- 1.018 14 20 cbr 1000 ------- 0 21.1 -2147483648.-1 0 0
r 1.036 10 0 cbr 1000 ------- 0 21.1 -2147483648.-1 0 0
+ 1.036 0 11 cbr 1000 ------- 0 21.1 -2147483648.-1 0 0
- 1.036 0 11 cbr 1000 ------- 0 21.1 -2147483648.-1 0 0
+ 1.036 0 12 cbr 1000 ------- 0 21.1 -2147483648.-1 0 0
- 1.036 0 12 cbr 1000 ------- 0 21.1 -2147483648.-1 0 0
+ 1.036 0 13 cbr 1000 ------- 0 21.1 -2147483648.-1 0 0
- 1.036 0 13 cbr 1000 ------- 0 21.1 -2147483648.-1 0 0
r 1.036 10 1 cbr 1000 ------- 0 21.1 -2147483648.-1 0 0
+ 1.036 1 11 cbr 1000 ------- 0 21.1 -2147483648.-1 0 0
- 1.036 1 11 cbr 1000 ------- 0 21.1 -2147483648.-1 0 0
+ 1.036 1 12 cbr 1000 ------- 0 21.1 -2147483648.-1 0 0
- 1.036 1 12 cbr 1000 ------- 0 21.1 -2147483648.-1 0 0
+ 1.036 1 13 cbr 1000 ------- 0 21.1 -2147483648.-1 0 0
- 1.036 1 13 cbr 1000 ------- 0 21.1 -2147483648.-1 0 0
r 1.036 10 20 cbr 1000 ------- 0 21.1 -2147483648.-1 0 0
r 1.036 14 2 cbr 1000 ------- 0 21.1 -2147483648.-1 0 0
+ 1.036 2 15 cbr 1000 ------- 0 21.1 -2147483648.-1 0 0
- 1.036 2 15 cbr 1000 ------- 0 21.1 -2147483648.-1 0 0
+ 1.036 2 16 cbr 1000 ------- 0 21.1 -2147483648.-1 0 0
- 1.036 2 16 cbr 1000 ------- 0 21.1 -2147483648.-1 0 0
+ 1.036 2 17 cbr 1000 ------- 0 21.1 -2147483648.-1 0 0
- 1.036 2 17 cbr 1000 ------- 0 21.1 -2147483648.-1 0 0
r 1.036 14 3 cbr 1000 ------- 0 21.1 -2147483648.-1 0 0
+ 1.036 3 15 cbr 1000 ------- 0 21.1 -2147483648.-1 0 0
- 1.036 3 15 cbr 1000 ------- 0 21.1 -2147483648.-1 0 0
+ 1.036 3 16 cbr 1000 ------- 0 21.1 -2147483648.-1 0 0
- 1.036 3 16 cbr 1000 ------- 0 21.1 -2147483648.-1 0 0
+ 1.036 3 17 cbr 1000 ------- 0 21.1 -2147483648.-1 0 0
- 1.036 3 17 cbr 1000 ------- 0 21.1 -2147483648.-1 0 0
r 1.036 14 20 cbr 1000 ------- 0 21.1 -2147483648.-1 0 0
r 1.054 0 11 cbr 1000 ------- 0 21.1 -2147483648.-1 0 0
+ 1.054 11 22 cbr 1000 ------- 0 21.1 -2147483648.-1 0 0
- 1.054 11 22 cbr 1000 ------- 0 21.1 -2147483648.-1 0 0
+ 1.054 11 23 cbr 1000 ------- 0 21.1 -2147483648.-1 0 0
- 1.054 11 23 cbr 1000 ------- 0 21.1 -2147483648.-1 0 0
r 1.054 0 12 cbr 1000 ------- 0 21.1 -2147483648.-1 0 0
+ 1.054 12 24 cbr 1000 ------- 0 21.1 -2147483648.-1 0 0
- 1.054 12 24 cbr 1000 ------- 0 21.1 -2147483648.-1 0 0
+ 1.054 12 25 cbr 1000 ------- 0 21.1 -2147483648.-1 0 0
- 1.054 12 25 cbr 1000 ------- 0 21.1 -2147483648.-1 0 0
r 1.054 0 13 cbr 1000 ------- 0 21.1 -2147483648.-1 0 0
+ 1.054 13 26 cbr 1000 ------- 0 21.1 -2147483648.-1 0 0
- 1.054 13 26 cbr 1000 ------- 0 21.1 -2147483648.-1 0 0
+ 1.054 13 27 cbr 1000 ------- 0 21.1 -2147483648.-1 0 0
- 1.054 13 27 cbr 1000 ------- 0 21.1 -2147483648.-1 0 0
r 1.054 1 11 cbr 1000 ------- 0 21.1 -2147483648.-1 0 0
+ 1.054 11 22 cbr 1000 ------- 0 21.1 -2147483648.-1 0 0
+ 1.054 11 23 cbr 1000 ------- 0 21.1 -2147483648.-1 0 0
r 1.054 1 12 cbr 1000 ------- 0 21.1 -2147483648.-1 0 0
+ 1.054 12 24 cbr 1000 ------- 0 21.1 -2147483648.-1 0 0
+ 1.054 12 25 cbr 1000 ------- 0 21.1 -2147483648.-1 0 0
r 1.054 1 13 cbr 1000 ------- 0 21.1 -2147483648.-1 0 0
+ 1.054 13 26 cbr 1000 ------- 0 21.1 -2147483648.-1 0 0
+ 1.054 13 27 cbr 1000 ------- 0 21.1 -2147483648.-1 0 0
r 1.054 2 15 cbr 1000 ------- 0 21.1 -2147483648.-1 0 0
+ 1.054 15 22 cbr 1000 ------- 0 21.1 -2147483648.-1 0 0
- 1.054 15 22 cbr 1000 ------- 0 21.1 -2147483648.-1 0 0
+ 1.054 15 23 cbr 1000 ------- 0 21.1 -2147483648.-1 0 0
- 1.054 15 23 cbr 1000 ------- 0 21.1 -2147483648.-1 0 0
r 1.054 2 16 cbr 1000 ------- 0 21.1 -2147483648.-1 0 0
+ 1.054 16 24 cbr 1000 ------- 0 21.1 -2147483648.-1 0 0
- 1.054 16 24 cbr 1000 ------- 0 21.1 -2147483648.-1 0 0
+ 1.054 16 25 cbr 1000 ------- 0 21.1 -2147483648.-1 0 0
- 1.054 16 25 cbr 1000 ------- 0 21.1 -2147483648.-1 0 0
r 1.054 2 17 cbr 1000 ------- 0 21.1 -2147483648.-1 0 0
+ 1.054 17 26 cbr 1000 ------- 0 21.1 -2147483648.-1 0 0
- 1.054 17 26 cbr 1000 ------- 0 21.1 -2147483648.-1 0 0
+ 1.054 17 27 cbr 1000 ------- 0 21.1 -2147483648.-1 0 0
- 1.054 17 27 cbr 1000 ------- 0 21.1 -2147483648.-1 0 0
r 1.054 3 15 cbr 1000 ------- 0 21.1 -2147483648.-1 0 0
+ 1.054 15 22 cbr 1000 ------- 0 21.1 -2147483648.-1 0 0
+ 1.054 15 23 cbr 1000 ------- 0 21.1 -2147483648.-1 0 0
r 1.054 3 16 cbr 1000 ------- 0 21.1 -2147483648.-1 0 0
+ 1.054 16 24 cbr 1000 ------- 0 21.1 -2147483648.-1 0 0
+ 1.054 16 25 cbr 1000 ------- 0 21.1 -2147483648.-1 0 0
r 1.054 3 17 cbr 1000 ------- 0 21.1 -2147483648.-1 0 0
+ 1.054 17 26 cbr 1000 ------- 0 21.1 -2147483648.-1 0 0
+ 1.054 17 27 cbr 1000 ------- 0 21.1 -2147483648.-1 0 0
- 1.062 11 22 cbr 1000 ------- 0 21.1 -2147483648.-1 0 0
- 1.062 11 23 cbr 1000 ------- 0 21.1 -2147483648.-1 0 0
- 1.062 12 24 cbr 1000 ------- 0 21.1 -2147483648.-1 0 0
- 1.062 12 25 cbr 1000 ------- 0 21.1 -2147483648.-1 0 0
- 1.062 13 26 cbr 1000 ------- 0 21.1 -2147483648.-1 0 0
- 1.062 13 27 cbr 1000 ------- 0 21.1 -2147483648.-1 0 0
- 1.062 15 22 cbr 1000 ------- 0 21.1 -2147483648.-1 0 0
- 1.062 15 23 cbr 1000 ------- 0 21.1 -2147483648.-1 0 0
- 1.062 16 24 cbr 1000 ------- 0 21.1 -2147483648.-1 0 0
- 1.062 16 25 cbr 1000 ------- 0 21.1 -2147483648.-1 0 0
- 1.062 17 26 cbr 1000 ------- 0 21.1 -2147483648.-1 0 0
- 1.062 17 27 cbr 1000 ------- 0 21.1 -2147483648.-1 0 0
r 1.072 11 22 cbr 1000 ------- 0 21.1 -2147483648.-1 0 0
r 1.072 11 23 cbr 1000 ------- 0 21.1 -2147483648.-1 0 0
r 1.072 12 24 cbr 1000 ------- 0 21.1 -2147483648.-1 0 0
r 1.072 12 25 cbr 1000 ------- 0 21.1 -2147483648.-1 0 0
r 1.072 13 26 cbr 1000 ------- 0 21.1 -2147483648.-1 0 0
r 1.072 13 27 cbr 1000 ------- 0 21.1 -2147483648.-1 0 0
r 1.072 15 22 cbr 1000 ------- 0 21.1 -2147483648.-1 0 0
r 1.072 15 23 cbr 1000 ------- 0 21.1 -2147483648.-1 0 0
r 1.072 16 24 cbr 1000 ------- 0 21.1 -2147483648.-1 0 0
r 1.072 16 25 cbr 1000 ------- 0 21.1 -2147483648.-1 0 0
r 1.072 17 26 cbr 1000 ------- 0 21.1 -2147483648.-1 0 0
r 1.072 17 27 cbr 1000 ------- 0 21.1 -2147483648.-1 0 0
r 1.08 11 22 cbr 1000 ------- 0 21.1 -2147483648.-1 0 0
r 1.08 11 23 cbr 1000 ------- 0 21.1 -2147483648.-1 0 0
r 1.08 12 24 cbr 1000 ------- 0 21.1 -2147483648.-1 0 0
r 1.08 12 25 cbr 1000 ------- 0 21.1 -2147483648.-1 0 0
r 1.08 13 26 cbr 1000 ------- 0 21.1 -2147483648.-1 0 0
r 1.08 13 27 cbr 1000 ------- 0 21.1 -2147483648.-1 0 0
r 1.08 15 22 cbr 1000 ------- 0 21.1 -2147483648.-1 0 0
r 1.08 15 23 cbr 1000 ------- 0 21.1 -2147483648.-1 0 0
r 1.08 16 24 cbr 1000 ------- 0 21.1 -2147483648.-1 0 0
r 1.08 16 25 cbr 1000 ------- 0 21.1 -2147483648.-1 0 0
r 1.08 17 26 cbr 1000 ------- 0 21.1 -2147483648.-1 0 0
r 1.08 17 27 cbr 1000 ------- 0 21.1 -2147483648.-1 0 0
