+ 1 21 10 cbr 100 ------- 0 21.1 -2147483648.-1 0 0
- 1 21 10 cbr 100 ------- 0 21.1 -2147483648.-1 0 0
+ 1 21 14 cbr 100 ------- 0 21.1 -2147483648.-1 0 0
- 1 21 14 cbr 100 ------- 0 21.1 -2147483648.-1 0 0
r 1.0108 21 10 cbr 100 ------- 0 21.1 -2147483648.-1 0 0
+ 1.0108 10 0 cbr 100 ------- 0 21.1 -2147483648.-1 0 0
- 1.0108 10 0 cbr 100 ------- 0 21.1 -2147483648.-1 0 0
+ 1.0108 10 1 cbr 100 ------- 0 21.1 -2147483648.-1 0 0
- 1.0108 10 1 cbr 100 ------- 0 21.1 -2147483648.-1 0 0
+ 1.0108 10 20 cbr 100 ------- 0 21.1 -2147483648.-1 0 0
- 1.0108 10 20 cbr 100 ------- 0 21.1 -2147483648.-1 0 0
r 1.0108 21 14 cbr 100 ------- 0 21.1 -2147483648.-1 0 0
+ 1.0108 14 2 cbr 100 ------- 0 21.1 -2147483648.-1 0 0
- 1.0108 14 2 cbr 100 ------- 0 21.1 -2147483648.-1 0 0
+ 1.0108 14 3 cbr 100 ------- 0 21.1 -2147483648.-1 0 0
- 1.0108 14 3 cbr 100 ------- 0 21.1 -2147483648.-1 0 0
+ 1.0108 14 20 cbr 100 ------- 0 21.1 -2147483648.-1 0 0
- 1.0108 14 20 cbr 100 ------- 0 21.1 -2147483648.-1 0 0
r 1.0216 10 0 cbr 100 ------- 0 21.1 -2147483648.-1 0 0
+ 1.0216 0 11 cbr 100 ------- 0 21.1 -2147483648.-1 0 0
- 1.0216 0 11 cbr 100 ------- 0 21.1 -2147483648.-1 0 0
+ 1.0216 0 12 cbr 100 ------- 0 21.1 -2147483648.-1 0 0
- 1.0216 0 12 cbr 100 ------- 0 21.1 -2147483648.-1 0 0
+ 1.0216 0 13 cbr 100 ------- 0 21.1 -2147483648.-1 0 0
- 1.0216 0 13 cbr 100 ------- 0 21.1 -2147483648.-1 0 0
r 1.0216 10 1 cbr 100 ------- 0 21.1 -2147483648.-1 0 0
+ 1.0216 1 11 cbr 100 ------- 0 21.1 -2147483648.-1 0 0
- 1.0216 1 11 cbr 100 ------- 0 21.1 -2147483648.-1 0 0
+ 1.0216 1 12 cbr 100 ------- 0 21.1 -2147483648.-1 0 0
- 1.0216 1 12 cbr 100 ------- 0 21.1 -2147483648.-1 0 0
+ 1.0216 1 13 cbr 100 ------- 0 21.1 -2147483648.-1 0 0
- 1.0216 1 13 cbr 100 ------- 0 21.1 -2147483648.-1 0 0
r 1.0216 10 20 cbr 100 ------- 0 21.1 -2147483648.-1 0 0
r 1.0216 14 2 cbr 100 ------- 0 21.1 -2147483648.-1 0 0
+ 1.0216 2 15 cbr 100 ------- 0 21.1 -2147483648.-1 0 0
- 1.0216 2 15 cbr 100 ------- 0 21.1 -2147483648.-1 0 0
+ 1.0216 2 16 cbr 100 ------- 0 21.1 -2147483648.-1 0 0
- 1.0216 2 16 cbr 100 ------- 0 21.1 -2147483648.-1 0 0
+ 1.0216 2 17 cbr 100 ------- 0 21.1 -2147483648.-1 0 0
- 1.0216 2 17 cbr 100 ------- 0 21.1 -2147483648.-1 0 0
r 1.0216 14 3 cbr 100 ------- 0 21.1 -2147483648.-1 0 0
+ 1.0216 3 15 cbr 100 ------- 0 21.1 -2147483648.-1 0 0
- 1.0216 3 15 cbr 100 ------- 0 21.1 -2147483648.-1 0 0
+ 1.0216 3 16 cbr 100 ------- 0 21.1 -2147483648.-1 0 0
- 1.0216 3 16 cbr 100 ------- 0 21.1 -2147483648.-1 0 0
+ 1.0216 3 17 cbr 100 ------- 0 21.1 -2147483648.-1 0 0
- 1.0216 3 17 cbr 100 ------- 0 21.1 -2147483648.-1 0 0
r 1.0216 14 20 cbr 100 ------- 0 21.1 -2147483648.-1 0 0
r 1.0324 0 11 cbr 100 ------- 0 21.1 -2147483648.-1 0 0
+ 1.0324 11 22 cbr 100 ------- 0 21.1 -2147483648.-1 0 0
- 1.0324 11 22 cbr 100 ------- 0 21.1 -2147483648.-1 0 0
+ 1.0324 11 23 cbr 100 ------- 0 21.1 -2147483648.-1 0 0
- 1.0324 11 23 cbr 100 ------- 0 21.1 -2147483648.-1 0 0
r 1.0324 0 12 cbr 100 ------- 0 21.1 -2147483648.-1 0 0
+ 1.0324 12 24 cbr 100 ------- 0 21.1 -2147483648.-1 0 0
- 1.0324 12 24 cbr 100 ------- 0 21.1 -2147483648.-1 0 0
+ 1.0324 12 25 cbr 100 ------- 0 21.1 -2147483648.-1 0 0
- 1.0324 12 25 cbr 100 ------- 0 21.1 -2147483648.-1 0 0
r 1.0324 0 13 cbr 100 ------- 0 21.1 -2147483648.-1 0 0
+ 1.0324 13 26 cbr 100 ------- 0 21.1 -2147483648.-1 0 0
- 1.0324 13 26 cbr 100 ------- 0 21.1 -2147483648.-1 0 0
+ 1.0324 13 27 cbr 100 ------- 0 21.1 -2147483648.-1 0 0
- 1.0324 13 27 cbr 100 ------- 0 21.1 -2147483648.-1 0 0
r 1.0324 1 11 cbr 100 ------- 0 21.1 -2147483648.-1 0 0
+ 1.0324 11 22 cbr 100 ------- 0 21.1 -2147483648.-1 0 0
+ 1.0324 11 23 cbr 100 ------- 0 21.1 -2147483648.-1 0 0
r 1.0324 1 12 cbr 100 ------- 0 21.1 -2147483648.-1 0 0
+ 1.0324 12 24 cbr 100 ------- 0 21.1 -2147483648.-1 0 0
+ 1.0324 12 25 cbr 100 ------- 0 21.1 -2147483648.-1 0 0
r 1.0324 1 13 cbr 100 ------- 0 21.1 -2147483648.-1 0 0
+ 1.0324 13 26 cbr 100 ------- 0 21.1 -2147483648.-1 0 0
+ 1.0324 13 27 cbr 100 ------- 0 21.1 -2147483648.-1 0 0
r 1.0324 2 15 cbr 100 ------- 0 21.1 -2147483648.-1 0 0
+ 1.0324 15 22 cbr 100 ------- 0 21.1 -2147483648.-1 0 0
- 1.0324 15 22 cbr 100 ------- 0 21.1 -2147483648.-1 0 0
+ 1.0324 15 23 cbr 100 ------- 0 21.1 -2147483648.-1 0 0
- 1.0324 15 23 cbr 100 ------- 0 21.1 -2147483648.-1 0 0
r 1.0324 2 16 cbr 100 ------- 0 21.1 -2147483648.-1 0 0
+ 1.0324 16 24 cbr 100 ------- 0 21.1 -2147483648.-1 0 0
- 1.0324 16 24 cbr 100 ------- 0 21.1 -2147483648.-1 0 0
+ 1.0324 16 25 cbr 100 ------- 0 21.1 -2147483648.-1 0 0
- 1.0324 16 25 cbr 100 ------- 0 21.1 -2147483648.-1 0 0
r 1.0324 2 17 cbr 100 ------- 0 21.1 -2147483648.-1 0 0
+ 1.0324 17 26 cbr 100 ------- 0 21.1 -2147483648.-1 0 0
- 1.0324 17 26 cbr 100 ------- 0 21.1 -2147483648.-1 0 0
+ 1.0324 17 27 cbr 100 ------- 0 21.1 -2147483648.-1 0 0
- 1.0324 17 27 cbr 100 ------- 0 21.1 -2147483648.-1 0 0
r 1.0324 3 15 cbr 100 ------- 0 21.1 -2147483648.-1 0 0
+ 1.0324 15 22 cbr 100 ------- 0 21.1 -2147483648.-1 0 0
+ 1.0324 15 23 cbr 100 ------- 0 21.1 -2147483648.-1 0 0
r 1.0324 3 16 cbr 100 ------- 0 21.1 -2147483648.-1 0 0
+ 1.0324 16 24 cbr 100 ------- 0 21.1 -2147483648.-1 0 0
+ 1.0324 16 25 cbr 100 ------- 0 21.1 -2147483648.-1 0 0
r 1.0324 3 17 cbr 100 ------- 0 21.1 -2147483648.-1 0 0
+ 1.0324 17 26 cbr 100 ------- 0 21.1 -2147483648.-1 0 0
+ 1.0324 17 27 cbr 100 ------- 0 21.1 -2147483648.-1 0 0
- 1.0332 11 22 cbr 100 ------- 0 21.1 -2147483648.-1 0 0
- 1.0332 11 23 cbr 100 ------- 0 21.1 -2147483648.-1 0 0
- 1.0332 12 24 cbr 100 ------- 0 21.1 -2147483648.-1 0 0
- 1.0332 12 25 cbr 100 ------- 0 21.1 -2147483648.-1 0 0
- 1.0332 13 26 cbr 100 ------- 0 21.1 -2147483648.-1 0 0
- 1.0332 13 27 cbr 100 ------- 0 21.1 -2147483648.-1 0 0
- 1.0332 15 22 cbr 100 ------- 0 21.1 -2147483648.-1 0 0
- 1.0332 15 23 cbr 100 ------- 0 21.1 -2147483648.-1 0 0
- 1.0332 16 24 cbr 100 ------- 0 21.1 -2147483648.-1 0 0
- 1.0332 16 25 cbr 100 ------- 0 21.1 -2147483648.-1 0 0
- 1.0332 17 26 cbr 100 ------- 0 21.1 -2147483648.-1 0 0
- 1.0332 17 27 cbr 100 ------- 0 21.1 -2147483648.-1 0 0
r 1.0432 11 22 cbr 100 ------- 0 21.1 -2147483648.-1 0 0
r 1.0432 11 23 cbr 100 ------- 0 21.1 -2147483648.-1 0 0
r 1.0432 12 24 cbr 100 ------- 0 21.1 -2147483648.-1 0 0
r 1.0432 12 25 cbr 100 ------- 0 21.1 -2147483648.-1 0 0
r 1.0432 13 26 cbr 100 ------- 0 21.1 -2147483648.-1 0 0
r 1.0432 13 27 cbr 100 ------- 0 21.1 -2147483648.-1 0 0
r 1.0432 15 22 cbr 100 ------- 0 21.1 -2147483648.-1 0 0
r 1.0432 15 23 cbr 100 ------- 0 21.1 -2147483648.-1 0 0
r 1.0432 16 24 cbr 100 ------- 0 21.1 -2147483648.-1 0 0
r 1.0432 16 25 cbr 100 ------- 0 21.1 -2147483648.-1 0 0
r 1.0432 17 26 cbr 100 ------- 0 21.1 -2147483648.-1 0 0
r 1.0432 17 27 cbr 100 ------- 0 21.1 -2147483648.-1 0 0
r 1.044 11 22 cbr 100 ------- 0 21.1 -2147483648.-1 0 0
r 1.044 11 23 cbr 100 ------- 0 21.1 -2147483648.-1 0 0
r 1.044 12 24 cbr 100 ------- 0 21.1 -2147483648.-1 0 0
r 1.044 12 25 cbr 100 ------- 0 21.1 -2147483648.-1 0 0
r 1.044 13 26 cbr 100 ------- 0 21.1 -2147483648.-1 0 0
r 1.044 13 27 cbr 100 ------- 0 21.1 -2147483648.-1 0 0
r 1.044 15 22 cbr 100 ------- 0 21.1 -2147483648.-1 0 0
r 1.044 15 23 cbr 100 ------- 0 21.1 -2147483648.-1 0 0
r 1.044 16 24 cbr 100 ------- 0 21.1 -2147483648.-1 0 0
r 1.044 16 25 cbr 100 ------- 0 21.1 -2147483648.-1 0 0
r 1.044 17 26 cbr 100 ------- 0 21.1 -2147483648.-1 0 0
r 1.044 17 27 cbr 100 ------- 0 21.1 -2147483648.-1 0 0
+ 1.8 21 10 cbr 100 ------- 0 21.1 -2147483648.-1 1 1
- 1.8 21 10 cbr 100 ------- 0 21.1 -2147483648.-1 1 1
+ 1.8 21 14 cbr 100 ------- 0 21.1 -2147483648.-1 1 1
- 1.8 21 14 cbr 100 ------- 0 21.1 -2147483648.-1 1 1
r 1.8108 21 10 cbr 100 ------- 0 21.1 -2147483648.-1 1 1
+ 1.8108 10 0 cbr 100 ------- 0 21.1 -2147483648.-1 1 1
- 1.8108 10 0 cbr 100 ------- 0 21.1 -2147483648.-1 1 1
+ 1.8108 10 1 cbr 100 ------- 0 21.1 -2147483648.-1 1 1
- 1.8108 10 1 cbr 100 ------- 0 21.1 -2147483648.-1 1 1
+ 1.8108 10 20 cbr 100 ------- 0 21.1 -2147483648.-1 1 1
- 1.8108 10 20 cbr 100 ------- 0 21.1 -2147483648.-1 1 1
r 1.8108 21 14 cbr 100 ------- 0 21.1 -2147483648.-1 1 1
+ 1.8108 14 2 cbr 100 ------- 0 21.1 -2147483648.-1 1 1
- 1.8108 14 2 cbr 100 ------- 0 21.1 -2147483648.-1 1 1
+ 1.8108 14 3 cbr 100 ------- 0 21.1 -2147483648.-1 1 1
- 1.8108 14 3 cbr 100 ------- 0 21.1 -2147483648.-1 1 1
+ 1.8108 14 20 cbr 100 ------- 0 21.1 -2147483648.-1 1 1
- 1.8108 14 20 cbr 100 ------- 0 21.1 -2147483648.-1 1 1
r 1.8216 10 0 cbr 100 ------- 0 21.1 -2147483648.-1 1 1
+ 1.8216 0 11 cbr 100 ------- 0 21.1 -2147483648.-1 1 1
- 1.8216 0 11 cbr 100 ------- 0 21.1 -2147483648.-1 1 1
+ 1.8216 0 12 cbr 100 ------- 0 21.1 -2147483648.-1 1 1
- 1.8216 0 12 cbr 100 ------- 0 21.1 -2147483648.-1 1 1
+ 1.8216 0 13 cbr 100 ------- 0 21.1 -2147483648.-1 1 1
- 1.8216 0 13 cbr 100 ------- 0 21.1 -2147483648.-1 1 1
r 1.8216 10 1 cbr 100 ------- 0 21.1 -2147483648.-1 1 1
+ 1.8216 1 11 cbr 100 ------- 0 21.1 -2147483648.-1 1 1
- 1.8216 1 11 cbr 100 ------- 0 21.1 -2147483648.-1 1 1
+ 1.8216 1 12 cbr 100 ------- 0 21.1 -2147483648.-1 1 1
- 1.8216 1 12 cbr 100 ------- 0 21.1 -2147483648.-1 1 1
+ 1.8216 1 13 cbr 100 ------- 0 21.1 -2147483648.-1 1 1
- 1.8216 1 13 cbr 100 ------- 0 21.1 -2147483648.-1 1 1
r 1.8216 10 20 cbr 100 ------- 0 21.1 -2147483648.-1 1 1
r 1.8216 14 2 cbr 100 ------- 0 21.1 -2147483648.-1 1 1
+ 1.8216 2 15 cbr 100 ------- 0 21.1 -2147483648.-1 1 1
- 1.8216 2 15 cbr 100 ------- 0 21.1 -2147483648.-1 1 1
+ 1.8216 2 16 cbr 100 ------- 0 21.1 -2147483648.-1 1 1
- 1.8216 2 16 cbr 100 ------- 0 21.1 -2147483648.-1 1 1
+ 1.8216 2 17 cbr 100 ------- 0 21.1 -2147483648.-1 1 1
- 1.8216 2 17 cbr 100 ------- 0 21.1 -2147483648.-1 1 1
r 1.8216 14 3 cbr 100 ------- 0 21.1 -2147483648.-1 1 1
+ 1.8216 3 15 cbr 100 ------- 0 21.1 -2147483648.-1 1 1
- 1.8216 3 15 cbr 100 ------- 0 21.1 -2147483648.-1 1 1
+ 1.8216 3 16 cbr 100 ------- 0 21.1 -2147483648.-1 1 1
- 1.8216 3 16 cbr 100 ------- 0 21.1 -2147483648.-1 1 1
+ 1.8216 3 17 cbr 100 ------- 0 21.1 -2147483648.-1 1 1
- 1.8216 3 17 cbr 100 ------- 0 21.1 -2147483648.-1 1 1
r 1.8216 14 20 cbr 100 ------- 0 21.1 -2147483648.-1 1 1
r 1.8324 0 11 cbr 100 ------- 0 21.1 -2147483648.-1 1 1
+ 1.8324 11 22 cbr 100 ------- 0 21.1 -2147483648.-1 1 1
- 1.8324 11 22 cbr 100 ------- 0 21.1 -2147483648.-1 1 1
+ 1.8324 11 23 cbr 100 ------- 0 21.1 -2147483648.-1 1 1
- 1.8324 11 23 cbr 100 ------- 0 21.1 -2147483648.-1 1 1
r 1.8324 0 12 cbr 100 ------- 0 21.1 -2147483648.-1 1 1
+ 1.8324 12 24 cbr 100 ------- 0 21.1 -2147483648.-1 1 1
- 1.8324 12 24 cbr 100 ------- 0 21.1 -2147483648.-1 1 1
+ 1.8324 12 25 cbr 100 ------- 0 21.1 -2147483648.-1 1 1
- 1.8324 12 25 cbr 100 ------- 0 21.1 -2147483648.-1 1 1
r 1.8324 0 13 cbr 100 ------- 0 21.1 -2147483648.-1 1 1
+ 1.8324 13 26 cbr 100 ------- 0 21.1 -2147483648.-1 1 1
- 1.8324 13 26 cbr 100 ------- 0 21.1 -2147483648.-1 1 1
+ 1.8324 13 27 cbr 100 ------- 0 21.1 -2147483648.-1 1 1
- 1.8324 13 27 cbr 100 ------- 0 21.1 -2147483648.-1 1 1
r 1.8324 1 11 cbr 100 ------- 0 21.1 -2147483648.-1 1 1
+ 1.8324 11 22 cbr 100 ------- 0 21.1 -2147483648.-1 1 1
+ 1.8324 11 23 cbr 100 ------- 0 21.1 -2147483648.-1 1 1
r 1.8324 1 12 cbr 100 ------- 0 21.1 -2147483648.-1 1 1
+ 1.8324 12 24 cbr 100 ------- 0 21.1 -2147483648.-1 1 1
+ 1.8324 12 25 cbr 100 ------- 0 21.1 -2147483648.-1 1 1
r 1.8324 1 13 cbr 100 ------- 0 21.1 -2147483648.-1 1 1
+ 1.8324 13 26 cbr 100 ------- 0 21.1 -2147483648.-1 1 1
+ 1.8324 13 27 cbr 100 ------- 0 21.1 -2147483648.-1 1 1
r 1.8324 2 15 cbr 100 ------- 0 21.1 -2147483648.-1 1 1
+ 1.8324 15 22 cbr 100 ------- 0 21.1 -2147483648.-1 1 1
- 1.8324 15 22 cbr 100 ------- 0 21.1 -2147483648.-1 1 1
+ 1.8324 15 23 cbr 100 ------- 0 21.1 -2147483648.-1 1 1
- 1.8324 15 23 cbr 100 ------- 0 21.1 -2147483648.-1 1 1
r 1.8324 2 16 cbr 100 ------- 0 21.1 -2147483648.-1 1 1
+ 1.8324 16 24 cbr 100 ------- 0 21.1 -2147483648.-1 1 1
- 1.8324 16 24 cbr 100 ------- 0 21.1 -2147483648.-1 1 1
+ 1.8324 16 25 cbr 100 ------- 0 21.1 -2147483648.-1 1 1
- 1.8324 16 25 cbr 100 ------- 0 21.1 -2147483648.-1 1 1
r 1.8324 2 17 cbr 100 ------- 0 21.1 -2147483648.-1 1 1
+ 1.8324 17 26 cbr 100 ------- 0 21.1 -2147483648.-1 1 1
- 1.8324 17 26 cbr 100 ------- 0 21.1 -2147483648.-1 1 1
+ 1.8324 17 27 cbr 100 ------- 0 21.1 -2147483648.-1 1 1
- 1.8324 17 27 cbr 100 ------- 0 21.1 -2147483648.-1 1 1
r 1.8324 3 15 cbr 100 ------- 0 21.1 -2147483648.-1 1 1
+ 1.8324 15 22 cbr 100 ------- 0 21.1 -2147483648.-1 1 1
+ 1.8324 15 23 cbr 100 ------- 0 21.1 -2147483648.-1 1 1
r 1.8324 3 16 cbr 100 ------- 0 21.1 -2147483648.-1 1 1
+ 1.8324 16 24 cbr 100 ------- 0 21.1 -2147483648.-1 1 1
+ 1.8324 16 25 cbr 100 ------- 0 21.1 -2147483648.-1 1 1
r 1.8324 3 17 cbr 100 ------- 0 21.1 -2147483648.-1 1 1
+ 1.8324 17 26 cbr 100 ------- 0 21.1 -2147483648.-1 1 1
+ 1.8324 17 27 cbr 100 ------- 0 21.1 -2147483648.-1 1 1
- 1.8332 11 22 cbr 100 ------- 0 21.1 -2147483648.-1 1 1
- 1.8332 11 23 cbr 100 ------- 0 21.1 -2147483648.-1 1 1
- 1.8332 12 24 cbr 100 ------- 0 21.1 -2147483648.-1 1 1
- 1.8332 12 25 cbr 100 ------- 0 21.1 -2147483648.-1 1 1
- 1.8332 13 26 cbr 100 ------- 0 21.1 -2147483648.-1 1 1
- 1.8332 13 27 cbr 100 ------- 0 21.1 -2147483648.-1 1 1
- 1.8332 15 22 cbr 100 ------- 0 21.1 -2147483648.-1 1 1
- 1.8332 15 23 cbr 100 ------- 0 21.1 -2147483648.-1 1 1
- 1.8332 16 24 cbr 100 ------- 0 21.1 -2147483648.-1 1 1
- 1.8332 16 25 cbr 100 ------- 0 21.1 -2147483648.-1 1 1
- 1.8332 17 26 cbr 100 ------- 0 21.1 -2147483648.-1 1 1
- 1.8332 17 27 cbr 100 ------- 0 21.1 -2147483648.-1 1 1
r 1.8432 11 22 cbr 100 ------- 0 21.1 -2147483648.-1 1 1
r 1.8432 11 23 cbr 100 ------- 0 21.1 -2147483648.-1 1 1
r 1.8432 12 24 cbr 100 ------- 0 21.1 -2147483648.-1 1 1
r 1.8432 12 25 cbr 100 ------- 0 21.1 -2147483648.-1 1 1
r 1.8432 13 26 cbr 100 ------- 0 21.1 -2147483648.-1 1 1
r 1.8432 13 27 cbr 100 ------- 0 21.1 -2147483648.-1 1 1
r 1.8432 15 22 cbr 100 ------- 0 21.1 -2147483648.-1 1 1
r 1.8432 15 23 cbr 100 ------- 0 21.1 -2147483648.-1 1 1
r 1.8432 16 24 cbr 100 ------- 0 21.1 -2147483648.-1 1 1
r 1.8432 16 25 cbr 100 ------- 0 21.1 -2147483648.-1 1 1
r 1.8432 17 26 cbr 100 ------- 0 21.1 -2147483648.-1 1 1
r 1.8432 17 27 cbr 100 ------- 0 21.1 -2147483648.-1 1 1
r 1.844 11 22 cbr 100 ------- 0 21.1 -2147483648.-1 1 1
r 1.844 11 23 cbr 100 ------- 0 21.1 -2147483648.-1 1 1
r 1.844 12 24 cbr 100 ------- 0 21.1 -2147483648.-1 1 1
r 1.844 12 25 cbr 100 ------- 0 21.1 -2147483648.-1 1 1
r 1.844 13 26 cbr 100 ------- 0 21.1 -2147483648.-1 1 1
r 1.844 13 27 cbr 100 ------- 0 21.1 -2147483648.-1 1 1
r 1.844 15 22 cbr 100 ------- 0 21.1 -2147483648.-1 1 1
r 1.844 15 23 cbr 100 ------- 0 21.1 -2147483648.-1 1 1
r 1.844 16 24 cbr 100 ------- 0 21.1 -2147483648.-1 1 1
r 1.844 16 25 cbr 100 ------- 0 21.1 -2147483648.-1 1 1
r 1.844 17 26 cbr 100 ------- 0 21.1 -2147483648.-1 1 1
r 1.844 17 27 cbr 100 ------- 0 21.1 -2147483648.-1 1 1
+ 2.6 21 10 cbr 100 ------- 0 21.1 -2147483648.-1 2 2
- 2.6 21 10 cbr 100 ------- 0 21.1 -2147483648.-1 2 2
+ 2.6 21 14 cbr 100 ------- 0 21.1 -2147483648.-1 2 2
- 2.6 21 14 cbr 100 ------- 0 21.1 -2147483648.-1 2 2
r 2.6108 21 10 cbr 100 ------- 0 21.1 -2147483648.-1 2 2
+ 2.6108 10 0 cbr 100 ------- 0 21.1 -2147483648.-1 2 2
- 2.6108 10 0 cbr 100 ------- 0 21.1 -2147483648.-1 2 2
+ 2.6108 10 1 cbr 100 ------- 0 21.1 -2147483648.-1 2 2
- 2.6108 10 1 cbr 100 ------- 0 21.1 -2147483648.-1 2 2
+ 2.6108 10 20 cbr 100 ------- 0 21.1 -2147483648.-1 2 2
- 2.6108 10 20 cbr 100 ------- 0 21.1 -2147483648.-1 2 2
r 2.6108 21 14 cbr 100 ------- 0 21.1 -2147483648.-1 2 2
+ 2.6108 14 2 cbr 100 ------- 0 21.1 -2147483648.-1 2 2
- 2.6108 14 2 cbr 100 ------- 0 21.1 -2147483648.-1 2 2
+ 2.6108 14 3 cbr 100 ------- 0 21.1 -2147483648.-1 2 2
- 2.6108 14 3 cbr 100 ------- 0 21.1 -2147483648.-1 2 2
+ 2.6108 14 20 cbr 100 ------- 0 21.1 -2147483648.-1 2 2
- 2.6108 14 20 cbr 100 ------- 0 21.1 -2147483648.-1 2 2
r 2.6216 10 0 cbr 100 ------- 0 21.1 -2147483648.-1 2 2
+ 2.6216 0 11 cbr 100 ------- 0 21.1 -2147483648.-1 2 2
- 2.6216 0 11 cbr 100 ------- 0 21.1 -2147483648.-1 2 2
+ 2.6216 0 12 cbr 100 ------- 0 21.1 -2147483648.-1 2 2
- 2.6216 0 12 cbr 100 ------- 0 21.1 -2147483648.-1 2 2
+ 2.6216 0 13 cbr 100 ------- 0 21.1 -2147483648.-1 2 2
- 2.6216 0 13 cbr 100 ------- 0 21.1 -2147483648.-1 2 2
r 2.6216 10 1 cbr 100 ------- 0 21.1 -2147483648.-1 2 2
+ 2.6216 1 11 cbr 100 ------- 0 21.1 -2147483648.-1 2 2
- 2.6216 1 11 cbr 100 ------- 0 21.1 -2147483648.-1 2 2
+ 2.6216 1 12 cbr 100 ------- 0 21.1 -2147483648.-1 2 2
- 2.6216 1 12 cbr 100 ------- 0 21.1 -2147483648.-1 2 2
+ 2.6216 1 13 cbr 100 ------- 0 21.1 -2147483648.-1 2 2
- 2.6216 1 13 cbr 100 ------- 0 21.1 -2147483648.-1 2 2
r 2.6216 10 20 cbr 100 ------- 0 21.1 -2147483648.-1 2 2
r 2.6216 14 2 cbr 100 ------- 0 21.1 -2147483648.-1 2 2
+ 2.6216 2 15 cbr 100 ------- 0 21.1 -2147483648.-1 2 2
- 2.6216 2 15 cbr 100 ------- 0 21.1 -2147483648.-1 2 2
+ 2.6216 2 16 cbr 100 ------- 0 21.1 -2147483648.-1 2 2
- 2.6216 2 16 cbr 100 ------- 0 21.1 -2147483648.-1 2 2
+ 2.6216 2 17 cbr 100 ------- 0 21.1 -2147483648.-1 2 2
- 2.6216 2 17 cbr 100 ------- 0 21.1 -2147483648.-1 2 2
r 2.6216 14 3 cbr 100 ------- 0 21.1 -2147483648.-1 2 2
+ 2.6216 3 15 cbr 100 ------- 0 21.1 -2147483648.-1 2 2
- 2.6216 3 15 cbr 100 ------- 0 21.1 -2147483648.-1 2 2
+ 2.6216 3 16 cbr 100 ------- 0 21.1 -2147483648.-1 2 2
- 2.6216 3 16 cbr 100 ------- 0 21.1 -2147483648.-1 2 2
+ 2.6216 3 17 cbr 100 ------- 0 21.1 -2147483648.-1 2 2
- 2.6216 3 17 cbr 100 ------- 0 21.1 -2147483648.-1 2 2
r 2.6216 14 20 cbr 100 ------- 0 21.1 -2147483648.-1 2 2
r 2.6324 0 11 cbr 100 ------- 0 21.1 -2147483648.-1 2 2
+ 2.6324 11 22 cbr 100 ------- 0 21.1 -2147483648.-1 2 2
- 2.6324 11 22 cbr 100 ------- 0 21.1 -2147483648.-1 2 2
+ 2.6324 11 23 cbr 100 ------- 0 21.1 -2147483648.-1 2 2
- 2.6324 11 23 cbr 100 ------- 0 21.1 -2147483648.-1 2 2
r 2.6324 0 12 cbr 100 ------- 0 21.1 -2147483648.-1 2 2
+ 2.6324 12 24 cbr 100 ------- 0 21.1 -2147483648.-1 2 2
- 2.6324 12 24 cbr 100 ------- 0 21.1 -2147483648.-1 2 2
+ 2.6324 12 25 cbr 100 ------- 0 21.1 -2147483648.-1 2 2
- 2.6324 12 25 cbr 100 ------- 0 21.1 -2147483648.-1 2 2
r 2.6324 0 13 cbr 100 ------- 0 21.1 -2147483648.-1 2 2
+ 2.6324 13 26 cbr 100 ------- 0 21.1 -2147483648.-1 2 2
- 2.6324 13 26 cbr 100 ------- 0 21.1 -2147483648.-1 2 2
+ 2.6324 13 27 cbr 100 ------- 0 21.1 -2147483648.-1 2 2
- 2.6324 13 27 cbr 100 ------- 0 21.1 -2147483648.-1 2 2
r 2.6324 1 11 cbr 100 ------- 0 21.1 -2147483648.-1 2 2
+ 2.6324 11 22 cbr 100 ------- 0 21.1 -2147483648.-1 2 2
+ 2.6324 11 23 cbr 100 ------- 0 21.1 -2147483648.-1 2 2
r 2.6324 1 12 cbr 100 ------- 0 21.1 -2147483648.-1 2 2
+ 2.6324 12 24 cbr 100 ------- 0 21.1 -2147483648.-1 2 2
+ 2.6324 12 25 cbr 100 ------- 0 21.1 -2147483648.-1 2 2
r 2.6324 1 13 cbr 100 ------- 0 21.1 -2147483648.-1 2 2
+ 2.6324 13 26 cbr 100 ------- 0 21.1 -2147483648.-1 2 2
+ 2.6324 13 27 cbr 100 ------- 0 21.1 -2147483648.-1 2 2
r 2.6324 2 15 cbr 100 ------- 0 21.1 -2147483648.-1 2 2
+ 2.6324 15 22 cbr 100 ------- 0 21.1 -2147483648.-1 2 2
- 2.6324 15 22 cbr 100 ------- 0 21.1 -2147483648.-1 2 2
+ 2.6324 15 23 cbr 100 ------- 0 21.1 -2147483648.-1 2 2
- 2.6324 15 23 cbr 100 ------- 0 21.1 -2147483648.-1 2 2
r 2.6324 2 16 cbr 100 ------- 0 21.1 -2147483648.-1 2 2
+ 2.6324 16 24 cbr 100 ------- 0 21.1 -2147483648.-1 2 2
- 2.6324 16 24 cbr 100 ------- 0 21.1 -2147483648.-1 2 2
+ 2.6324 16 25 cbr 100 ------- 0 21.1 -2147483648.-1 2 2
- 2.6324 16 25 cbr 100 ------- 0 21.1 -2147483648.-1 2 2
r 2.6324 2 17 cbr 100 ------- 0 21.1 -2147483648.-1 2 2
+ 2.6324 17 26 cbr 100 ------- 0 21.1 -2147483648.-1 2 2
- 2.6324 17 26 cbr 100 ------- 0 21.1 -2147483648.-1 2 2
+ 2.6324 17 27 cbr 100 ------- 0 21.1 -2147483648.-1 2 2
- 2.6324 17 27 cbr 100 ------- 0 21.1 -2147483648.-1 2 2
r 2.6324 3 15 cbr 100 ------- 0 21.1 -2147483648.-1 2 2
+ 2.6324 15 22 cbr 100 ------- 0 21.1 -2147483648.-1 2 2
+ 2.6324 15 23 cbr 100 ------- 0 21.1 -2147483648.-1 2 2
r 2.6324 3 16 cbr 100 ------- 0 21.1 -2147483648.-1 2 2
+ 2.6324 16 24 cbr 100 ------- 0 21.1 -2147483648.-1 2 2
+ 2.6324 16 25 cbr 100 ------- 0 21.1 -2147483648.-1 2 2
r 2.6324 3 17 cbr 100 ------- 0 21.1 -2147483648.-1 2 2
+ 2.6324 17 26 cbr 100 ------- 0 21.1 -2147483648.-1 2 2
+ 2.6324 17 27 cbr 100 ------- 0 21.1 -2147483648.-1 2 2
- 2.6332 11 22 cbr 100 ------- 0 21.1 -2147483648.-1 2 2
- 2.6332 11 23 cbr 100 ------- 0 21.1 -2147483648.-1 2 2
- 2.6332 12 24 cbr 100 ------- 0 21.1 -2147483648.-1 2 2
- 2.6332 12 25 cbr 100 ------- 0 21.1 -2147483648.-1 2 2
- 2.6332 13 26 cbr 100 ------- 0 21.1 -2147483648.-1 2 2
- 2.6332 13 27 cbr 100 ------- 0 21.1 -2147483648.-1 2 2
- 2.6332 15 22 cbr 100 ------- 0 21.1 -2147483648.-1 2 2
- 2.6332 15 23 cbr 100 ------- 0 21.1 -2147483648.-1 2 2
- 2.6332 16 24 cbr 100 ------- 0 21.1 -2147483648.-1 2 2
- 2.6332 16 25 cbr 100 ------- 0 21.1 -2147483648.-1 2 2
- 2.6332 17 26 cbr 100 ------- 0 21.1 -2147483648.-1 2 2
- 2.6332 17 27 cbr 100 ------- 0 21.1 -2147483648.-1 2 2
r 2.6432 11 22 cbr 100 ------- 0 21.1 -2147483648.-1 2 2
r 2.6432 11 23 cbr 100 ------- 0 21.1 -2147483648.-1 2 2
r 2.6432 12 24 cbr 100 ------- 0 21.1 -2147483648.-1 2 2
r 2.6432 12 25 cbr 100 ------- 0 21.1 -2147483648.-1 2 2
r 2.6432 13 26 cbr 100 ------- 0 21.1 -2147483648.-1 2 2
r 2.6432 13 27 cbr 100 ------- 0 21.1 -2147483648.-1 2 2
r 2.6432 15 22 cbr 100 ------- 0 21.1 -2147483648.-1 2 2
r 2.6432 15 23 cbr 100 ------- 0 21.1 -2147483648.-1 2 2
r 2.6432 16 24 cbr 100 ------- 0 21.1 -2147483648.-1 2 2
r 2.6432 16 25 cbr 100 ------- 0 21.1 -2147483648.-1 2 2
r 2.6432 17 26 cbr 100 ------- 0 21.1 -2147483648.-1 2 2
r 2.6432 17 27 cbr 100 ------- 0 21.1 -2147483648.-1 2 2
r 2.644 11 22 cbr 100 ------- 0 21.1 -2147483648.-1 2 2
r 2.644 11 23 cbr 100 ------- 0 21.1 -2147483648.-1 2 2
r 2.644 12 24 cbr 100 ------- 0 21.1 -2147483648.-1 2 2
r 2.644 12 25 cbr 100 ------- 0 21.1 -2147483648.-1 2 2
r 2.644 13 26 cbr 100 ------- 0 21.1 -2147483648.-1 2 2
r 2.644 13 27 cbr 100 ------- 0 21.1 -2147483648.-1 2 2
r 2.644 15 22 cbr 100 ------- 0 21.1 -2147483648.-1 2 2
r 2.644 15 23 cbr 100 ------- 0 21.1 -2147483648.-1 2 2
r 2.644 16 24 cbr 100 ------- 0 21.1 -2147483648.-1 2 2
r 2.644 16 25 cbr 100 ------- 0 21.1 -2147483648.-1 2 2
r 2.644 17 26 cbr 100 ------- 0 21.1 -2147483648.-1 2 2
r 2.644 17 27 cbr 100 ------- 0 21.1 -2147483648.-1 2 2
+ 3.4 21 10 cbr 100 ------- 0 21.1 -2147483648.-1 3 3
- 3.4 21 10 cbr 100 ------- 0 21.1 -2147483648.-1 3 3
+ 3.4 21 14 cbr 100 ------- 0 21.1 -2147483648.-1 3 3
- 3.4 21 14 cbr 100 ------- 0 21.1 -2147483648.-1 3 3
r 3.4108 21 10 cbr 100 ------- 0 21.1 -2147483648.-1 3 3
+ 3.4108 10 0 cbr 100 ------- 0 21.1 -2147483648.-1 3 3
- 3.4108 10 0 cbr 100 ------- 0 21.1 -2147483648.-1 3 3
+ 3.4108 10 1 cbr 100 ------- 0 21.1 -2147483648.-1 3 3
- 3.4108 10 1 cbr 100 ------- 0 21.1 -2147483648.-1 3 3
+ 3.4108 10 20 cbr 100 ------- 0 21.1 -2147483648.-1 3 3
- 3.4108 10 20 cbr 100 ------- 0 21.1 -2147483648.-1 3 3
r 3.4108 21 14 cbr 100 ------- 0 21.1 -2147483648.-1 3 3
+ 3.4108 14 2 cbr 100 ------- 0 21.1 -2147483648.-1 3 3
- 3.4108 14 2 cbr 100 ------- 0 21.1 -2147483648.-1 3 3
+ 3.4108 14 3 cbr 100 ------- 0 21.1 -2147483648.-1 3 3
- 3.4108 14 3 cbr 100 ------- 0 21.1 -2147483648.-1 3 3
+ 3.4108 14 20 cbr 100 ------- 0 21.1 -2147483648.-1 3 3
- 3.4108 14 20 cbr 100 ------- 0 21.1 -2147483648.-1 3 3
r 3.4216 10 0 cbr 100 ------- 0 21.1 -2147483648.-1 3 3
+ 3.4216 0 11 cbr 100 ------- 0 21.1 -2147483648.-1 3 3
- 3.4216 0 11 cbr 100 ------- 0 21.1 -2147483648.-1 3 3
+ 3.4216 0 12 cbr 100 ------- 0 21.1 -2147483648.-1 3 3
- 3.4216 0 12 cbr 100 ------- 0 21.1 -2147483648.-1 3 3
+ 3.4216 0 13 cbr 100 ------- 0 21.1 -2147483648.-1 3 3
- 3.4216 0 13 cbr 100 ------- 0 21.1 -2147483648.-1 3 3
r 3.4216 10 1 cbr 100 ------- 0 21.1 -2147483648.-1 3 3
+ 3.4216 1 11 cbr 100 ------- 0 21.1 -2147483648.-1 3 3
- 3.4216 1 11 cbr 100 ------- 0 21.1 -2147483648.-1 3 3
+ 3.4216 1 12 cbr 100 ------- 0 21.1 -2147483648.-1 3 3
- 3.4216 1 12 cbr 100 ------- 0 21.1 -2147483648.-1 3 3
+ 3.4216 1 13 cbr 100 ------- 0 21.1 -2147483648.-1 3 3
- 3.4216 1 13 cbr 100 ------- 0 21.1 -2147483648.-1 3 3
r 3.4216 10 20 cbr 100 ------- 0 21.1 -2147483648.-1 3 3
r 3.4216 14 2 cbr 100 ------- 0 21.1 -2147483648.-1 3 3
+ 3.4216 2 15 cbr 100 ------- 0 21.1 -2147483648.-1 3 3
- 3.4216 2 15 cbr 100 ------- 0 21.1 -2147483648.-1 3 3
+ 3.4216 2 16 cbr 100 ------- 0 21.1 -2147483648.-1 3 3
- 3.4216 2 16 cbr 100 ------- 0 21.1 -2147483648.-1 3 3
+ 3.4216 2 17 cbr 100 ------- 0 21.1 -2147483648.-1 3 3
- 3.4216 2 17 cbr 100 ------- 0 21.1 -2147483648.-1 3 3
r 3.4216 14 3 cbr 100 ------- 0 21.1 -2147483648.-1 3 3
+ 3.4216 3 15 cbr 100 ------- 0 21.1 -2147483648.-1 3 3
- 3.4216 3 15 cbr 100 ------- 0 21.1 -2147483648.-1 3 3
+ 3.4216 3 16 cbr 100 ------- 0 21.1 -2147483648.-1 3 3
- 3.4216 3 16 cbr 100 ------- 0 21.1 -2147483648.-1 3 3
+ 3.4216 3 17 cbr 100 ------- 0 21.1 -2147483648.-1 3 3
- 3.4216 3 17 cbr 100 ------- 0 21.1 -2147483648.-1 3 3
r 3.4216 14 20 cbr 100 ------- 0 21.1 -2147483648.-1 3 3
r 3.4324 0 11 cbr 100 ------- 0 21.1 -2147483648.-1 3 3
+ 3.4324 11 22 cbr 100 ------- 0 21.1 -2147483648.-1 3 3
- 3.4324 11 22 cbr 100 ------- 0 21.1 -2147483648.-1 3 3
+ 3.4324 11 23 cbr 100 ------- 0 21.1 -2147483648.-1 3 3
- 3.4324 11 23 cbr 100 ------- 0 21.1 -2147483648.-1 3 3
r 3.4324 0 12 cbr 100 ------- 0 21.1 -2147483648.-1 3 3
+ 3.4324 12 24 cbr 100 ------- 0 21.1 -2147483648.-1 3 3
- 3.4324 12 24 cbr 100 ------- 0 21.1 -2147483648.-1 3 3
+ 3.4324 12 25 cbr 100 ------- 0 21.1 -2147483648.-1 3 3
- 3.4324 12 25 cbr 100 ------- 0 21.1 -2147483648.-1 3 3
r 3.4324 0 13 cbr 100 ------- 0 21.1 -2147483648.-1 3 3
+ 3.4324 13 26 cbr 100 ------- 0 21.1 -2147483648.-1 3 3
- 3.4324 13 26 cbr 100 ------- 0 21.1 -2147483648.-1 3 3
+ 3.4324 13 27 cbr 100 ------- 0 21.1 -2147483648.-1 3 3
- 3.4324 13 27 cbr 100 ------- 0 21.1 -2147483648.-1 3 3
r 3.4324 1 11 cbr 100 ------- 0 21.1 -2147483648.-1 3 3
+ 3.4324 11 22 cbr 100 ------- 0 21.1 -2147483648.-1 3 3
+ 3.4324 11 23 cbr 100 ------- 0 21.1 -2147483648.-1 3 3
r 3.4324 1 12 cbr 100 ------- 0 21.1 -2147483648.-1 3 3
+ 3.4324 12 24 cbr 100 ------- 0 21.1 -2147483648.-1 3 3
+ 3.4324 12 25 cbr 100 ------- 0 21.1 -2147483648.-1 3 3
r 3.4324 1 13 cbr 100 ------- 0 21.1 -2147483648.-1 3 3
+ 3.4324 13 26 cbr 100 ------- 0 21.1 -2147483648.-1 3 3
+ 3.4324 13 27 cbr 100 ------- 0 21.1 -2147483648.-1 3 3
r 3.4324 2 15 cbr 100 ------- 0 21.1 -2147483648.-1 3 3
+ 3.4324 15 22 cbr 100 ------- 0 21.1 -2147483648.-1 3 3
- 3.4324 15 22 cbr 100 ------- 0 21.1 -2147483648.-1 3 3
+ 3.4324 15 23 cbr 100 ------- 0 21.1 -2147483648.-1 3 3
- 3.4324 15 23 cbr 100 ------- 0 21.1 -2147483648.-1 3 3
r 3.4324 2 16 cbr 100 ------- 0 21.1 -2147483648.-1 3 3
+ 3.4324 16 24 cbr 100 ------- 0 21.1 -2147483648.-1 3 3
- 3.4324 16 24 cbr 100 ------- 0 21.1 -2147483648.-1 3 3
+ 3.4324 16 25 cbr 100 ------- 0 21.1 -2147483648.-1 3 3
- 3.4324 16 25 cbr 100 ------- 0 21.1 -2147483648.-1 3 3
r 3.4324 2 17 cbr 100 ------- 0 21.1 -2147483648.-1 3 3
+ 3.4324 17 26 cbr 100 ------- 0 21.1 -2147483648.-1 3 3
- 3.4324 17 26 cbr 100 ------- 0 21.1 -2147483648.-1 3 3
+ 3.4324 17 27 cbr 100 ------- 0 21.1 -2147483648.-1 3 3
- 3.4324 17 27 cbr 100 ------- 0 21.1 -2147483648.-1 3 3
r 3.4324 3 15 cbr 100 ------- 0 21.1 -2147483648.-1 3 3
+ 3.4324 15 22 cbr 100 ------- 0 21.1 -2147483648.-1 3 3
+ 3.4324 15 23 cbr 100 ------- 0 21.1 -2147483648.-1 3 3
r 3.4324 3 16 cbr 100 ------- 0 21.1 -2147483648.-1 3 3
+ 3.4324 16 24 cbr 100 ------- 0 21.1 -2147483648.-1 3 3
+ 3.4324 16 25 cbr 100 ------- 0 21.1 -2147483648.-1 3 3
r 3.4324 3 17 cbr 100 ------- 0 21.1 -2147483648.-1 3 3
+ 3.4324 17 26 cbr 100 ------- 0 21.1 -2147483648.-1 3 3
+ 3.4324 17 27 cbr 100 ------- 0 21.1 -2147483648.-1 3 3
- 3.4332 11 22 cbr 100 ------- 0 21.1 -2147483648.-1 3 3
- 3.4332 11 23 cbr 100 ------- 0 21.1 -2147483648.-1 3 3
- 3.4332 12 24 cbr 100 ------- 0 21.1 -2147483648.-1 3 3
- 3.4332 12 25 cbr 100 ------- 0 21.1 -2147483648.-1 3 3
- 3.4332 13 26 cbr 100 ------- 0 21.1 -2147483648.-1 3 3
- 3.4332 13 27 cbr 100 ------- 0 21.1 -2147483648.-1 3 3
- 3.4332 15 22 cbr 100 ------- 0 21.1 -2147483648.-1 3 3
- 3.4332 15 23 cbr 100 ------- 0 21.1 -2147483648.-1 3 3
- 3.4332 16 24 cbr 100 ------- 0 21.1 -2147483648.-1 3 3
- 3.4332 16 25 cbr 100 ------- 0 21.1 -2147483648.-1 3 3
- 3.4332 17 26 cbr 100 ------- 0 21.1 -2147483648.-1 3 3
- 3.4332 17 27 cbr 100 ------- 0 21.1 -2147483648.-1 3 3
r 3.4432 11 22 cbr 100 ------- 0 21.1 -2147483648.-1 3 3
r 3.4432 11 23 cbr 100 ------- 0 21.1 -2147483648.-1 3 3
r 3.4432 12 24 cbr 100 ------- 0 21.1 -2147483648.-1 3 3
r 3.4432 12 25 cbr 100 ------- 0 21.1 -2147483648.-1 3 3
r 3.4432 13 26 cbr 100 ------- 0 21.1 -2147483648.-1 3 3
r 3.4432 13 27 cbr 100 ------- 0 21.1 -2147483648.-1 3 3
r 3.4432 15 22 cbr 100 ------- 0 21.1 -2147483648.-1 3 3
r 3.4432 15 23 cbr 100 ------- 0 21.1 -2147483648.-1 3 3
r 3.4432 16 24 cbr 100 ------- 0 21.1 -2147483648.-1 3 3
r 3.4432 16 25 cbr 100 ------- 0 21.1 -2147483648.-1 3 3
r 3.4432 17 26 cbr 100 ------- 0 21.1 -2147483648.-1 3 3
r 3.4432 17 27 cbr 100 ------- 0 21.1 -2147483648.-1 3 3
r 3.444 11 22 cbr 100 ------- 0 21.1 -2147483648.-1 3 3
r 3.444 11 23 cbr 100 ------- 0 21.1 -2147483648.-1 3 3
r 3.444 12 24 cbr 100 ------- 0 21.1 -2147483648.-1 3 3
r 3.444 12 25 cbr 100 ------- 0 21.1 -2147483648.-1 3 3
r 3.444 13 26 cbr 100 ------- 0 21.1 -2147483648.-1 3 3
r 3.444 13 27 cbr 100 ------- 0 21.1 -2147483648.-1 3 3
r 3.444 15 22 cbr 100 ------- 0 21.1 -2147483648.-1 3 3
r 3.444 15 23 cbr 100 ------- 0 21.1 -2147483648.-1 3 3
r 3.444 16 24 cbr 100 ------- 0 21.1 -2147483648.-1 3 3
r 3.444 16 25 cbr 100 ------- 0 21.1 -2147483648.-1 3 3
r 3.444 17 26 cbr 100 ------- 0 21.1 -2147483648.-1 3 3
r 3.444 17 27 cbr 100 ------- 0 21.1 -2147483648.-1 3 3
+ 4.2 21 10 cbr 100 ------- 0 21.1 -2147483648.-1 4 4
- 4.2 21 10 cbr 100 ------- 0 21.1 -2147483648.-1 4 4
+ 4.2 21 14 cbr 100 ------- 0 21.1 -2147483648.-1 4 4