+ 1 9 5 cbr 1000 ------- 0 9.1 -2147483648.-1 0 0
- 1 9 5 cbr 1000 ------- 0 9.1 -2147483648.-1 0 0
+ 1 9 4 cbr 1000 ------- 0 9.1 -2147483648.-1 0 0
- 1 9 4 cbr 1000 ------- 0 9.1 -2147483648.-1 0 0
r 1.018 9 5 cbr 1000 ------- 0 9.1 -2147483648.-1 0 0
+ 1.018 5 2 cbr 1000 ------- 0 9.1 -2147483648.-1 0 0
- 1.018 5 2 cbr 1000 ------- 0 9.1 -2147483648.-1 0 0
+ 1.018 5 3 cbr 1000 ------- 0 9.1 -2147483648.-1 0 0
- 1.018 5 3 cbr 1000 ------- 0 9.1 -2147483648.-1 0 0
+ 1.018 5 8 cbr 1000 ------- 0 9.1 -2147483648.-1 0 0
- 1.018 5 8 cbr 1000 ------- 0 9.1 -2147483648.-1 0 0
r 1.018 9 4 cbr 1000 ------- 0 9.1 -2147483648.-1 0 0
+ 1.018 4 0 cbr 1000 ------- 0 9.1 -2147483648.-1 0 0
- 1.018 4 0 cbr 1000 ------- 0 9.1 -2147483648.-1 0 0
+ 1.018 4 1 cbr 1000 ------- 0 9.1 -2147483648.-1 0 0
- 1.018 4 1 cbr 1000 ------- 0 9.1 -2147483648.-1 0 0
+ 1.018 4 8 cbr 1000 ------- 0 9.1 -2147483648.-1 0 0
- 1.018 4 8 cbr 1000 ------- 0 9.1 -2147483648.-1 0 0
r 1.036 5 2 cbr 1000 ------- 0 9.1 -2147483648.-1 0 0
+ 1.036 2 7 cbr 1000 ------- 0 9.1 -2147483648.-1 0 0
- 1.036 2 7 cbr 1000 ------- 0 9.1 -2147483648.-1 0 0
r 1.036 5 3 cbr 1000 ------- 0 9.1 -2147483648.-1 0 0
+ 1.036 3 7 cbr 1000 ------- 0 9.1 -2147483648.-1 0 0
- 1.036 3 7 cbr 1000 ------- 0 9.1 -2147483648.-1 0 0
r 1.036 5 8 cbr 1000 ------- 0 9.1 -2147483648.-1 0 0
r 1.036 4 0 cbr 1000 ------- 0 9.1 -2147483648.-1 0 0
+ 1.036 0 6 cbr 1000 ------- 0 9.1 -2147483648.-1 0 0
- 1.036 0 6 cbr 1000 ------- 0 9.1 -2147483648.-1 0 0
r 1.036 4 1 cbr 1000 ------- 0 9.1 -2147483648.-1 0 0
+ 1.036 1 6 cbr 1000 ------- 0 9.1 -2147483648.-1 0 0
- 1.036 1 6 cbr 1000 ------- 0 9.1 -2147483648.-1 0 0
r 1.036 4 8 cbr 1000 ------- 0 9.1 -2147483648.-1 0 0
r 1.054 2 7 cbr 1000 ------- 0 9.1 -2147483648.-1 0 0
+ 1.054 7 11 cbr 1000 ------- 0 9.1 -2147483648.-1 0 0
- 1.054 7 11 cbr 1000 ------- 0 9.1 -2147483648.-1 0 0
+ 1.054 7 10 cbr 1000 ------- 0 9.1 -2147483648.-1 0 0
- 1.054 7 10 cbr 1000 ------- 0 9.1 -2147483648.-1 0 0
r 1.054 3 7 cbr 1000 ------- 0 9.1 -2147483648.-1 0 0
+ 1.054 7 11 cbr 1000 ------- 0 9.1 -2147483648.-1 0 0
+ 1.054 7 10 cbr 1000 ------- 0 9.1 -2147483648.-1 0 0
r 1.054 0 6 cbr 1000 ------- 0 9.1 -2147483648.-1 0 0
+ 1.054 6 10 cbr 1000 ------- 0 9.1 -2147483648.-1 0 0
- 1.054 6 10 cbr 1000 ------- 0 9.1 -2147483648.-1 0 0
+ 1.054 6 11 cbr 1000 ------- 0 9.1 -2147483648.-1 0 0
- 1.054 6 11 cbr 1000 ------- 0 9.1 -2147483648.-1 0 0
r 1.054 1 6 cbr 1000 ------- 0 9.1 -2147483648.-1 0 0
+ 1.054 6 10 cbr 1000 ------- 0 9.1 -2147483648.-1 0 0
+ 1.054 6 11 cbr 1000 ------- 0 9.1 -2147483648.-1 0 0
- 1.062 7 11 cbr 1000 ------- 0 9.1 -2147483648.-1 0 0
- 1.062 7 10 cbr 1000 ------- 0 9.1 -2147483648.-1 0 0
- 1.062 6 10 cbr 1000 ------- 0 9.1 -2147483648.-1 0 0
- 1.062 6 11 cbr 1000 ------- 0 9.1 -2147483648.-1 0 0
r 1.072 7 11 cbr 1000 ------- 0 9.1 -2147483648.-1 0 0
r 1.072 7 10 cbr 1000 ------- 0 9.1 -2147483648.-1 0 0
r 1.072 6 10 cbr 1000 ------- 0 9.1 -2147483648.-1 0 0
r 1.072 6 11 cbr 1000 ------- 0 9.1 -2147483648.-1 0 0
r 1.08 7 11 cbr 1000 ------- 0 9.1 -2147483648.-1 0 0
r 1.08 7 10 cbr 1000 ------- 0 9.1 -2147483648.-1 0 0
r 1.08 6 10 cbr 1000 ------- 0 9.1 -2147483648.-1 0 0
r 1.08 6 11 cbr 1000 ------- 0 9.1 -2147483648.-1 0 0
